                               Psi4 1.1 release

  ==> Input File <==

--------------------------------------------------------------------------

molecule TFSI {
N       50      49.95   49.97
S       50.02   49.99   51.56
O       50.02   51.3    52.2
O       50.76   48.92   52.23
C       48.3    49.32   51.95
F       48.11   48.11   51.42
F       48.09   49.21   53.27
F       47.33   50.11   51.47
S       49.98   51.22   49.02
O       49.98   52.53   49.65
O       49.24   51.08   47.77
C       51.7    51.11   48.25
F       51.91   52.07   47.34
F       52.67   51.22   49.17
F       51.89   49.93   47.63
  -1    1
}

set {
basis def2-SVP
}

grad, wfn = gradient('pbe0', return_wfn=True)

set {
 gdma_limit 4
 gdma_radius ['C',0.53,'N',0.53,'O',0.53,'S',0.53,'F',0.53','H',0.53]
 gdma_multipole_units AU
 gdma_switch 0
}

gdma( wfn )

dma_results = get_array_variable('DMA DISTRIBUTED MULTIPOLES')
--------------------------------------------------------------------------

    Molecular point group: c1
  Charge       = -1
  Multiplicity = 1
  Basis Set: DEF2-SVP
    Blend: DEF2-SVP
   => PBE0 Composite Functional <=
  Basis Set: (DEF2-SVP AUX)
    Blend: DEF2-SVP-JKFIT

    Orbital Energies (a.u.)
    -----------------------

    Doubly Occupied:

       1A    -89.112186     2A    -89.111927     3A    -24.694326
       4A    -24.692831     5A    -24.690944     6A    -24.689860
       7A    -24.689740     8A    -24.687531     9A    -19.071042
      10A    -19.070556    11A    -19.070155    12A    -19.070107
      13A    -14.275959    14A    -10.352983    15A    -10.352613
      16A     -8.079158    17A     -8.078976    18A     -6.020968
      19A     -6.020785    20A     -6.020154    21A     -6.020125
      22A     -6.019979    23A     -6.019951    24A     -1.219790
      25A     -1.216735    26A     -1.124468    27A     -1.124223
      28A     -1.122794    29A     -1.119297    30A     -1.021322
      31A     -1.001462    32A     -0.890873    33A     -0.885811
      34A     -0.817630    35A     -0.645905    36A     -0.614618
      37A     -0.583145    38A     -0.522792    39A     -0.504601
      40A     -0.495685    41A     -0.495120    42A     -0.493631
      43A     -0.492779    44A     -0.412419    45A     -0.387222
      46A     -0.375406    47A     -0.373055    48A     -0.372190
      49A     -0.369513    50A     -0.357544    51A     -0.355185
      52A     -0.340286    53A     -0.336184    54A     -0.332792
      55A     -0.331955    56A     -0.329553    57A     -0.325574
      58A     -0.310693    59A     -0.309995    60A     -0.284546
      61A     -0.231399    62A     -0.230318    63A     -0.209090
      64A     -0.203320    65A     -0.198444    66A     -0.188037
      67A     -0.177265    68A     -0.165484    69A     -0.164545

  @DF-RKS Final Energy: -1824.89529555474564

   => Energetics <=

    Nuclear Repulsion Energy =           1565.4832087666793541
    One-Electron Energy =               -5663.6929611523828498
    Two-Electron Energy =                2398.6742906059685083
    DFT Exchange-Correlation Energy =    -125.3598337750107277
    Empirical Dispersion Energy =           0.0000000000000000
    PCM Polarization Energy =               0.0000000000000000
    EFP Energy =                            0.0000000000000000
    Total Energy =                      -1824.8952955547458714
    Molecular point group: c1

    Geometry (in Angstrom), charge = -1, multiplicity = 1:

       Center              X                  Y                   Z               Mass
    ------------   -----------------  -----------------  -----------------  -----------------
           N         -0.000000000000    -0.467107266584    -0.229393975306    14.003074004780
           S          0.020000000000    -0.427107266584     1.360606024694    31.972070999000
           O          0.020000000000     0.882892733416     2.000606024694    15.994914619560
           O          0.760000000000    -1.497107266584     2.030606024694    15.994914619560
           C         -1.700000000000    -1.097107266584     1.750606024694    12.000000000000
           F         -1.890000000000    -2.307107266584     1.220606024694    18.998403224000
           F         -1.910000000000    -1.207107266584     3.070606024694    18.998403224000
           F         -2.670000000000    -0.307107266584     1.270606024694    18.998403224000
           S         -0.020000000000     0.802892733416    -1.179393975306    31.972070999000
           O         -0.020000000000     2.112892733416    -0.549393975306    15.994914619560
           O         -0.760000000000     0.662892733416    -2.429393975306    15.994914619560
           C          1.700000000000     0.692892733416    -1.949393975306    12.000000000000
           F          1.910000000000     1.652892733416    -2.859393975306    18.998403224000
           F          2.670000000000     0.802892733416    -1.029393975306    18.998403224000
           F          1.890000000000    -0.487107266584    -2.569393975306    18.998403224000

  Basis Set: DEF2-SVP
    Blend: DEF2-SVP
  Basis Set: (DEF2-SVP AUX)
    Blend: DEF2-SVP-JKFIT
   => PBE0 Composite Functional <=

  -Total Gradient:
     Atom            X                  Y                   Z
    ------   -----------------  -----------------  -----------------
       1        0.000031756412     0.008417576709     0.000895617393
       2        0.033712518443     0.009783353611    -0.041155194660
       3       -0.005740010975    -0.001407113038     0.007114813084
       4       -0.015209195775    -0.003066013002     0.020487888173
       5        0.015134613626    -0.001586715166     0.004797090630
       6       -0.004752884449    -0.002663669562    -0.001125252679
       7       -0.008342339929    -0.003024549652     0.007898599972
       8       -0.005296228187    -0.000868351375    -0.000111396322
       9       -0.035979334856    -0.023399088736     0.033809212338
      10        0.005582277942    -0.000079819254    -0.007660018644
      11        0.017569552183     0.014223457239    -0.011143754043
      12       -0.016050468095     0.010131380423    -0.002782895581
      13        0.007567924165     0.004484347391    -0.007710883201
      14        0.006157230151    -0.001039706931     0.001544910925
      15        0.005612332961    -0.009984142560    -0.004898621439

*** Psi4 exiting successfully. Buy a developer a beer!
