                               Psi4 1.1 release

  ==> Input File <==

--------------------------------------------------------------------------

molecule TFSI {
N       50      49.95   49.97
S       50.02   49.99   51.56
O       50.02   51.3    52.2
O       50.76   48.92   52.23
C       48.3    49.32   51.95
F       48.11   48.11   51.42
F       48.09   49.21   53.27
F       47.33   50.11   51.47
S       49.98   51.22   49.02
O       49.98   52.53   49.65
O       49.24   51.08   47.77
C       51.7    51.11   48.25
F       51.91   52.07   47.34
F       52.67   51.22   49.17
F       51.89   49.93   47.63
  -1    1
}

set {
basis def2-SVP
}

E, wfn = energy('pbe0', return_wfn=True)
fchk_writer = psi4.FCHKWriter(wfn)
fchk_writer.write('TFSI_job.fchk')

--------------------------------------------------------------------------

    Molecular point group: c1

    Geometry (in Angstrom), charge = -1, multiplicity = 1:

       Center              X                  Y                   Z               Mass
    ------------   -----------------  -----------------  -----------------  -----------------
           N         -0.000000000000    -0.467107266584    -0.229393975306    14.003074004780
           S          0.020000000000    -0.427107266584     1.360606024694    31.972070999000
           O          0.020000000000     0.882892733416     2.000606024694    15.994914619560
           O          0.760000000000    -1.497107266584     2.030606024694    15.994914619560
           C         -1.700000000000    -1.097107266584     1.750606024694    12.000000000000
           F         -1.890000000000    -2.307107266584     1.220606024694    18.998403224000
           F         -1.910000000000    -1.207107266584     3.070606024694    18.998403224000
           F         -2.670000000000    -0.307107266584     1.270606024694    18.998403224000
           S         -0.020000000000     0.802892733416    -1.179393975306    31.972070999000
           O         -0.020000000000     2.112892733416    -0.549393975306    15.994914619560
           O         -0.760000000000     0.662892733416    -2.429393975306    15.994914619560
           C          1.700000000000     0.692892733416    -1.949393975306    12.000000000000
           F          1.910000000000     1.652892733416    -2.859393975306    18.998403224000
           F          2.670000000000     0.802892733416    -1.029393975306    18.998403224000
           F          1.890000000000    -0.487107266584    -2.569393975306    18.998403224000

  Charge       = -1
  Multiplicity = 1
  Basis Set: DEF2-SVP
    Blend: DEF2-SVP
   => PBE0 Composite Functional <=
  Basis Set: (DEF2-SVP AUX)
    Blend: DEF2-SVP-JKFIT

    Orbital Energies (a.u.)
    -----------------------

    Doubly Occupied:

       1A    -89.112190     2A    -89.111927     3A    -24.694327
       4A    -24.692831     5A    -24.690940     6A    -24.689861
       7A    -24.689742     8A    -24.687528     9A    -19.071041
      10A    -19.070564    11A    -19.070150    12A    -19.070118
      13A    -14.275959    14A    -10.352981    15A    -10.352618
      16A     -8.079161    17A     -8.078975    18A     -6.020971
      19A     -6.020785    20A     -6.020157    21A     -6.020128
      22A     -6.019978    23A     -6.019950    24A     -1.219789
      25A     -1.216735    26A     -1.124466    27A     -1.124224
      28A     -1.122794    29A     -1.119297    30A     -1.021323
      31A     -1.001464    32A     -0.890874    33A     -0.885814
      34A     -0.817631    35A     -0.645905    36A     -0.614618
      37A     -0.583145    38A     -0.522792    39A     -0.504600
      40A     -0.495684    41A     -0.495119    42A     -0.493631
      43A     -0.492779    44A     -0.412420    45A     -0.387223
      46A     -0.375406    47A     -0.373055    48A     -0.372189
      49A     -0.369513    50A     -0.357544    51A     -0.355186
      52A     -0.340287    53A     -0.336185    54A     -0.332792
      55A     -0.331954    56A     -0.329552    57A     -0.325575
      58A     -0.310692    59A     -0.309994    60A     -0.284548
      61A     -0.231400    62A     -0.230320    63A     -0.209092
      64A     -0.203321    65A     -0.198445    66A     -0.188038
      67A     -0.177267    68A     -0.165485    69A     -0.164546

  @DF-RKS Final Energy: -1824.89529555741183

   => Energetics <=

    Nuclear Repulsion Energy =           1565.4832087666793541
    One-Electron Energy =               -5663.6928316892226576
    Two-Electron Energy =                2398.6741728816209616
    DFT Exchange-Correlation Energy =    -125.3598455164891448
    Empirical Dispersion Energy =           0.0000000000000000
    PCM Polarization Energy =               0.0000000000000000
    EFP Energy =                            0.0000000000000000
    Total Energy =                      -1824.8952955574118278
*** Psi4 exiting successfully. Buy a developer a beer!
